<?xml version="1.0" encoding="UTF-8"?>

<!-- generated on Tue 26 Feb 2019 08:19:01 AM UTC by SUMO gui Version 0.32.0
<?xml version="1.0" encoding="UTF-8"?>

<configuration xmlns:xsi="http://www.w3.org/2001/XMLSchema-instance" xsi:noNamespaceSchemaLocation="http://sumo.dlr.de/xsd/sumoConfiguration.xsd">

    <input>
        <net-file value="my_net.net.xml"/>
        <route-files value="my_rou.rou.xml"/>
    </input>

    <output>
        <fcd-output value="fcd_data.xml"/>
    </output>

    <time>
        <begin value="0"/>
        <end value="500"/>
    </time>

</configuration>
-->

<fcd-export xmlns:xsi="http://www.w3.org/2001/XMLSchema-instance" xsi:noNamespaceSchemaLocation="http://sumo.dlr.de/xsd/fcd_file.xsd">
    <timestep time="0.00"/>
    <timestep time="1.00"/>
    <timestep time="2.00"/>
    <timestep time="3.00"/>
    <timestep time="4.00"/>
    <timestep time="5.00"/>
    <timestep time="6.00"/>
    <timestep time="7.00"/>
    <timestep time="8.00"/>
    <timestep time="9.00"/>
    <timestep time="10.00">
        <vehicle id="veh1" x="2.10" y="395.05" angle="90.00" type="Car" speed="0.00" pos="2.10" lane="1to2_0" slope="0.00"/>
    </timestep>
    <timestep time="11.00">
        <vehicle id="veh1" x="12.10" y="398.35" angle="90.00" type="Car" speed="10.00" pos="12.10" lane="1to2_1" slope="0.00"/>
    </timestep>
    <timestep time="12.00">
        <vehicle id="veh1" x="32.10" y="398.35" angle="90.00" type="Car" speed="20.00" pos="32.10" lane="1to2_1" slope="0.00"/>
    </timestep>
    <timestep time="13.00">
        <vehicle id="veh1" x="62.10" y="398.35" angle="90.00" type="Car" speed="30.00" pos="62.10" lane="1to2_1" slope="0.00"/>
    </timestep>
    <timestep time="14.00">
        <vehicle id="veh1" x="101.96" y="398.35" angle="90.00" type="Car" speed="39.86" pos="101.96" lane="1to2_1" slope="0.00"/>
    </timestep>
    <timestep time="15.00">
        <vehicle id="veh1" x="136.81" y="398.35" angle="90.00" type="Car" speed="34.86" pos="136.81" lane="1to2_1" slope="0.00"/>
    </timestep>
    <timestep time="16.00">
        <vehicle id="veh1" x="166.67" y="398.35" angle="90.00" type="Car" speed="29.86" pos="166.67" lane="1to2_1" slope="0.00"/>
    </timestep>
    <timestep time="17.00">
        <vehicle id="veh1" x="191.52" y="398.35" angle="90.00" type="Car" speed="24.86" pos="191.52" lane="1to2_1" slope="0.00"/>
    </timestep>
    <timestep time="18.00">
        <vehicle id="veh1" x="211.38" y="398.35" angle="90.00" type="Car" speed="19.86" pos="211.38" lane="1to2_1" slope="0.00"/>
    </timestep>
    <timestep time="19.00">
        <vehicle id="veh1" x="226.24" y="398.35" angle="90.00" type="Car" speed="14.86" pos="226.24" lane="1to2_1" slope="0.00"/>
    </timestep>
    <timestep time="20.00">
        <vehicle id="veh1" x="236.09" y="398.35" angle="90.00" type="Car" speed="9.86" pos="236.09" lane="1to2_1" slope="0.00"/>
        <vehicle id="veh2" x="2.10" y="395.05" angle="90.00" type="Car" speed="0.00" pos="2.10" lane="1to2_0" slope="0.00"/>
    </timestep>
    <timestep time="21.00">
        <vehicle id="veh1" x="240.95" y="398.35" angle="90.00" type="Car" speed="4.86" pos="240.95" lane="1to2_1" slope="0.00"/>
        <vehicle id="veh2" x="12.10" y="395.05" angle="90.00" type="Car" speed="10.00" pos="12.10" lane="1to2_0" slope="0.00"/>
    </timestep>
    <timestep time="22.00">
        <vehicle id="veh1" x="240.95" y="398.35" angle="90.00" type="Car" speed="0.00" pos="240.95" lane="1to2_1" slope="0.00"/>
        <vehicle id="veh2" x="32.10" y="398.35" angle="90.00" type="Car" speed="20.00" pos="32.10" lane="1to2_1" slope="0.00"/>
    </timestep>
    <timestep time="23.00">
        <vehicle id="veh1" x="240.95" y="398.35" angle="90.00" type="Car" speed="0.00" pos="240.95" lane="1to2_1" slope="0.00"/>
        <vehicle id="veh2" x="62.10" y="398.35" angle="90.00" type="Car" speed="30.00" pos="62.10" lane="1to2_1" slope="0.00"/>
    </timestep>
    <timestep time="24.00">
        <vehicle id="veh1" x="240.95" y="398.35" angle="90.00" type="Car" speed="0.00" pos="240.95" lane="1to2_1" slope="0.00"/>
        <vehicle id="veh2" x="101.39" y="398.35" angle="90.00" type="Car" speed="39.29" pos="101.39" lane="1to2_1" slope="0.00"/>
    </timestep>
    <timestep time="25.00">
        <vehicle id="veh1" x="240.95" y="398.35" angle="90.00" type="Car" speed="0.00" pos="240.95" lane="1to2_1" slope="0.00"/>
        <vehicle id="veh2" x="135.69" y="398.35" angle="90.00" type="Car" speed="34.29" pos="135.69" lane="1to2_1" slope="0.00"/>
    </timestep>
    <timestep time="26.00">
        <vehicle id="veh1" x="240.95" y="398.35" angle="90.00" type="Car" speed="0.00" pos="240.95" lane="1to2_1" slope="0.00"/>
        <vehicle id="veh2" x="164.98" y="395.05" angle="90.00" type="Car" speed="29.29" pos="164.98" lane="1to2_0" slope="0.00"/>
    </timestep>
    <timestep time="27.00">
        <vehicle id="veh1" x="240.95" y="398.35" angle="90.00" type="Car" speed="0.00" pos="240.95" lane="1to2_1" slope="0.00"/>
        <vehicle id="veh2" x="190.14" y="395.05" angle="90.00" type="Car" speed="25.16" pos="190.14" lane="1to2_0" slope="0.00"/>
    </timestep>
    <timestep time="28.00">
        <vehicle id="veh1" x="240.95" y="398.35" angle="90.00" type="Car" speed="0.00" pos="240.95" lane="1to2_1" slope="0.00"/>
        <vehicle id="veh2" x="210.30" y="395.05" angle="90.00" type="Car" speed="20.16" pos="210.30" lane="1to2_0" slope="0.00"/>
    </timestep>
    <timestep time="29.00">
        <vehicle id="veh1" x="240.95" y="398.35" angle="90.00" type="Car" speed="0.00" pos="240.95" lane="1to2_1" slope="0.00"/>
        <vehicle id="veh2" x="225.46" y="395.05" angle="90.00" type="Car" speed="15.16" pos="225.46" lane="1to2_0" slope="0.00"/>
    </timestep>
    <timestep time="30.00">
        <vehicle id="veh1" x="240.95" y="398.35" angle="90.00" type="Car" speed="0.00" pos="240.95" lane="1to2_1" slope="0.00"/>
        <vehicle id="veh2" x="235.63" y="395.05" angle="90.00" type="Car" speed="10.16" pos="235.63" lane="1to2_0" slope="0.00"/>
        <vehicle id="veh3" x="2.10" y="395.05" angle="90.00" type="Car" speed="0.00" pos="2.10" lane="1to2_0" slope="0.00"/>
    </timestep>
    <timestep time="31.00">
        <vehicle id="veh1" x="240.95" y="398.35" angle="90.00" type="Car" speed="0.00" pos="240.95" lane="1to2_1" slope="0.00"/>
        <vehicle id="veh2" x="240.79" y="395.05" angle="90.00" type="Car" speed="5.16" pos="240.79" lane="1to2_0" slope="0.00"/>
        <vehicle id="veh3" x="12.10" y="398.35" angle="90.00" type="Car" speed="10.00" pos="12.10" lane="1to2_1" slope="0.00"/>
    </timestep>
    <timestep time="32.00">
        <vehicle id="veh1" x="240.95" y="398.35" angle="90.00" type="Car" speed="0.00" pos="240.95" lane="1to2_1" slope="0.00"/>
        <vehicle id="veh2" x="240.95" y="395.05" angle="90.00" type="Car" speed="0.16" pos="240.95" lane="1to2_0" slope="0.00"/>
        <vehicle id="veh3" x="32.10" y="398.35" angle="90.00" type="Car" speed="20.00" pos="32.10" lane="1to2_1" slope="0.00"/>
    </timestep>
    <timestep time="33.00">
        <vehicle id="veh1" x="240.95" y="398.35" angle="90.00" type="Car" speed="0.00" pos="240.95" lane="1to2_1" slope="0.00"/>
        <vehicle id="veh2" x="240.95" y="395.05" angle="90.00" type="Car" speed="0.00" pos="240.95" lane="1to2_0" slope="0.00"/>
        <vehicle id="veh3" x="62.10" y="398.35" angle="90.00" type="Car" speed="30.00" pos="62.10" lane="1to2_1" slope="0.00"/>
    </timestep>
    <timestep time="34.00">
        <vehicle id="veh1" x="240.95" y="398.35" angle="90.00" type="Car" speed="0.00" pos="240.95" lane="1to2_1" slope="0.00"/>
        <vehicle id="veh2" x="240.95" y="395.05" angle="90.00" type="Car" speed="0.00" pos="240.95" lane="1to2_0" slope="0.00"/>
        <vehicle id="veh3" x="101.39" y="398.35" angle="90.00" type="Car" speed="39.29" pos="101.39" lane="1to2_1" slope="0.00"/>
    </timestep>
    <timestep time="35.00">
        <vehicle id="veh1" x="240.95" y="398.35" angle="90.00" type="Car" speed="0.00" pos="240.95" lane="1to2_1" slope="0.00"/>
        <vehicle id="veh2" x="240.95" y="395.05" angle="90.00" type="Car" speed="0.00" pos="240.95" lane="1to2_0" slope="0.00"/>
        <vehicle id="veh3" x="135.69" y="398.35" angle="90.00" type="Car" speed="34.29" pos="135.69" lane="1to2_1" slope="0.00"/>
    </timestep>
    <timestep time="36.00">
        <vehicle id="veh1" x="240.95" y="398.35" angle="90.00" type="Car" speed="0.00" pos="240.95" lane="1to2_1" slope="0.00"/>
        <vehicle id="veh2" x="240.95" y="395.05" angle="90.00" type="Car" speed="0.00" pos="240.95" lane="1to2_0" slope="0.00"/>
        <vehicle id="veh3" x="164.98" y="398.35" angle="90.00" type="Car" speed="29.29" pos="164.98" lane="1to2_1" slope="0.00"/>
    </timestep>
    <timestep time="37.00">
        <vehicle id="veh1" x="240.95" y="398.35" angle="90.00" type="Car" speed="0.00" pos="240.95" lane="1to2_1" slope="0.00"/>
        <vehicle id="veh2" x="240.95" y="395.05" angle="90.00" type="Car" speed="0.00" pos="240.95" lane="1to2_0" slope="0.00"/>
        <vehicle id="veh3" x="189.27" y="398.35" angle="90.00" type="Car" speed="24.29" pos="189.27" lane="1to2_1" slope="0.00"/>
    </timestep>
    <timestep time="38.00">
        <vehicle id="veh1" x="240.95" y="398.35" angle="90.00" type="Car" speed="0.00" pos="240.95" lane="1to2_1" slope="0.00"/>
        <vehicle id="veh2" x="240.95" y="395.05" angle="90.00" type="Car" speed="0.00" pos="240.95" lane="1to2_0" slope="0.00"/>
        <vehicle id="veh3" x="208.57" y="398.35" angle="90.00" type="Car" speed="19.29" pos="208.57" lane="1to2_1" slope="0.00"/>
    </timestep>
    <timestep time="39.00">
        <vehicle id="veh1" x="240.95" y="398.35" angle="90.00" type="Car" speed="0.00" pos="240.95" lane="1to2_1" slope="0.00"/>
        <vehicle id="veh2" x="240.95" y="395.05" angle="90.00" type="Car" speed="0.00" pos="240.95" lane="1to2_0" slope="0.00"/>
        <vehicle id="veh3" x="222.86" y="398.35" angle="90.00" type="Car" speed="14.29" pos="222.86" lane="1to2_1" slope="0.00"/>
    </timestep>
    <timestep time="40.00">
        <vehicle id="veh1" x="240.95" y="398.35" angle="90.00" type="Car" speed="0.00" pos="240.95" lane="1to2_1" slope="0.00"/>
        <vehicle id="veh2" x="240.95" y="395.05" angle="90.00" type="Car" speed="0.00" pos="240.95" lane="1to2_0" slope="0.00"/>
        <vehicle id="veh3" x="232.15" y="398.35" angle="90.00" type="Car" speed="9.29" pos="232.15" lane="1to2_1" slope="0.00"/>
        <vehicle id="veh4" x="2.10" y="395.05" angle="90.00" type="Car" speed="0.00" pos="2.10" lane="1to2_0" slope="0.00"/>
    </timestep>
    <timestep time="41.00">
        <vehicle id="veh1" x="240.95" y="398.35" angle="90.00" type="Car" speed="0.00" pos="240.95" lane="1to2_1" slope="0.00"/>
        <vehicle id="veh2" x="240.95" y="395.05" angle="90.00" type="Car" speed="0.00" pos="240.95" lane="1to2_0" slope="0.00"/>
        <vehicle id="veh3" x="236.45" y="398.35" angle="90.00" type="Car" speed="4.29" pos="236.45" lane="1to2_1" slope="0.00"/>
        <vehicle id="veh4" x="12.10" y="395.05" angle="90.00" type="Car" speed="10.00" pos="12.10" lane="1to2_0" slope="0.00"/>
    </timestep>
    <timestep time="42.00">
        <vehicle id="veh1" x="240.95" y="398.35" angle="90.00" type="Car" speed="0.00" pos="240.95" lane="1to2_1" slope="0.00"/>
        <vehicle id="veh2" x="240.95" y="395.05" angle="90.00" type="Car" speed="0.00" pos="240.95" lane="1to2_0" slope="0.00"/>
        <vehicle id="veh3" x="236.45" y="398.35" angle="90.00" type="Car" speed="0.00" pos="236.45" lane="1to2_1" slope="0.00"/>
        <vehicle id="veh4" x="32.10" y="398.35" angle="90.00" type="Car" speed="20.00" pos="32.10" lane="1to2_1" slope="0.00"/>
    </timestep>
    <timestep time="43.00">
        <vehicle id="veh1" x="240.95" y="398.35" angle="90.00" type="Car" speed="0.00" pos="240.95" lane="1to2_1" slope="0.00"/>
        <vehicle id="veh2" x="240.95" y="395.05" angle="90.00" type="Car" speed="0.00" pos="240.95" lane="1to2_0" slope="0.00"/>
        <vehicle id="veh3" x="236.45" y="398.35" angle="90.00" type="Car" speed="0.00" pos="236.45" lane="1to2_1" slope="0.00"/>
        <vehicle id="veh4" x="62.10" y="398.35" angle="90.00" type="Car" speed="30.00" pos="62.10" lane="1to2_1" slope="0.00"/>
    </timestep>
    <timestep time="44.00">
        <vehicle id="veh1" x="240.95" y="398.35" angle="90.00" type="Car" speed="0.00" pos="240.95" lane="1to2_1" slope="0.00"/>
        <vehicle id="veh2" x="240.95" y="395.05" angle="90.00" type="Car" speed="0.00" pos="240.95" lane="1to2_0" slope="0.00"/>
        <vehicle id="veh3" x="236.45" y="398.35" angle="90.00" type="Car" speed="0.00" pos="236.45" lane="1to2_1" slope="0.00"/>
        <vehicle id="veh4" x="100.83" y="398.35" angle="90.00" type="Car" speed="38.73" pos="100.83" lane="1to2_1" slope="0.00"/>
    </timestep>
    <timestep time="45.00">
        <vehicle id="veh1" x="240.95" y="398.35" angle="90.00" type="Car" speed="0.00" pos="240.95" lane="1to2_1" slope="0.00"/>
        <vehicle id="veh2" x="240.95" y="395.05" angle="90.00" type="Car" speed="0.00" pos="240.95" lane="1to2_0" slope="0.00"/>
        <vehicle id="veh3" x="236.45" y="398.35" angle="90.00" type="Car" speed="0.00" pos="236.45" lane="1to2_1" slope="0.00"/>
        <vehicle id="veh4" x="134.56" y="398.35" angle="90.00" type="Car" speed="33.73" pos="134.56" lane="1to2_1" slope="0.00"/>
    </timestep>
    <timestep time="46.00">
        <vehicle id="veh1" x="240.95" y="398.35" angle="90.00" type="Car" speed="0.00" pos="240.95" lane="1to2_1" slope="0.00"/>
        <vehicle id="veh2" x="240.95" y="395.05" angle="90.00" type="Car" speed="0.00" pos="240.95" lane="1to2_0" slope="0.00"/>
        <vehicle id="veh3" x="236.45" y="398.35" angle="90.00" type="Car" speed="0.00" pos="236.45" lane="1to2_1" slope="0.00"/>
        <vehicle id="veh4" x="163.29" y="398.35" angle="90.00" type="Car" speed="28.73" pos="163.29" lane="1to2_1" slope="0.00"/>
    </timestep>
    <timestep time="47.00">
        <vehicle id="veh1" x="240.95" y="398.35" angle="90.00" type="Car" speed="0.00" pos="240.95" lane="1to2_1" slope="0.00"/>
        <vehicle id="veh2" x="240.95" y="395.05" angle="90.00" type="Car" speed="0.00" pos="240.95" lane="1to2_0" slope="0.00"/>
        <vehicle id="veh3" x="236.45" y="398.35" angle="90.00" type="Car" speed="0.00" pos="236.45" lane="1to2_1" slope="0.00"/>
        <vehicle id="veh4" x="187.02" y="398.35" angle="90.00" type="Car" speed="23.73" pos="187.02" lane="1to2_1" slope="0.00"/>
    </timestep>
    <timestep time="48.00">
        <vehicle id="veh1" x="240.95" y="398.35" angle="90.00" type="Car" speed="0.00" pos="240.95" lane="1to2_1" slope="0.00"/>
        <vehicle id="veh2" x="240.95" y="395.05" angle="90.00" type="Car" speed="0.00" pos="240.95" lane="1to2_0" slope="0.00"/>
        <vehicle id="veh3" x="236.45" y="398.35" angle="90.00" type="Car" speed="0.00" pos="236.45" lane="1to2_1" slope="0.00"/>
        <vehicle id="veh4" x="205.75" y="398.35" angle="90.00" type="Car" speed="18.73" pos="205.75" lane="1to2_1" slope="0.00"/>
    </timestep>
    <timestep time="49.00">
        <vehicle id="veh1" x="240.95" y="398.35" angle="90.00" type="Car" speed="0.00" pos="240.95" lane="1to2_1" slope="0.00"/>
        <vehicle id="veh2" x="240.95" y="395.05" angle="90.00" type="Car" speed="0.00" pos="240.95" lane="1to2_0" slope="0.00"/>
        <vehicle id="veh3" x="236.45" y="398.35" angle="90.00" type="Car" speed="0.00" pos="236.45" lane="1to2_1" slope="0.00"/>
        <vehicle id="veh4" x="219.49" y="398.35" angle="90.00" type="Car" speed="13.73" pos="219.49" lane="1to2_1" slope="0.00"/>
    </timestep>
    <timestep time="50.00">
        <vehicle id="veh1" x="240.95" y="398.35" angle="90.00" type="Car" speed="0.00" pos="240.95" lane="1to2_1" slope="0.00"/>
        <vehicle id="veh2" x="240.95" y="395.05" angle="90.00" type="Car" speed="0.00" pos="240.95" lane="1to2_0" slope="0.00"/>
        <vehicle id="veh3" x="236.45" y="398.35" angle="90.00" type="Car" speed="0.00" pos="236.45" lane="1to2_1" slope="0.00"/>
        <vehicle id="veh4" x="228.22" y="398.35" angle="90.00" type="Car" speed="8.73" pos="228.22" lane="1to2_1" slope="0.00"/>
    </timestep>
    <timestep time="51.00">
        <vehicle id="veh1" x="240.95" y="398.35" angle="90.00" type="Car" speed="0.00" pos="240.95" lane="1to2_1" slope="0.00"/>
        <vehicle id="veh2" x="240.95" y="395.05" angle="90.00" type="Car" speed="0.00" pos="240.95" lane="1to2_0" slope="0.00"/>
        <vehicle id="veh3" x="236.45" y="398.35" angle="90.00" type="Car" speed="0.00" pos="236.45" lane="1to2_1" slope="0.00"/>
        <vehicle id="veh4" x="231.95" y="398.35" angle="90.00" type="Car" speed="3.73" pos="231.95" lane="1to2_1" slope="0.00"/>
    </timestep>
    <timestep time="52.00">
        <vehicle id="veh1" x="249.83" y="401.79" angle="42.44" type="Car" speed="10.00" pos="9.00" lane=":n2_10_0" slope="0.00"/>
        <vehicle id="veh2" x="245.05" y="387.95" angle="180.00" type="Car" speed="10.00" pos="4.00" lane="2to4_0" slope="0.00"/>
        <vehicle id="veh3" x="236.45" y="398.35" angle="90.00" type="Car" speed="0.00" pos="236.45" lane="1to2_1" slope="0.00"/>
        <vehicle id="veh4" x="231.95" y="398.35" angle="90.00" type="Car" speed="0.00" pos="231.95" lane="1to2_1" slope="0.00"/>
    </timestep>
    <timestep time="53.00">
        <vehicle id="veh1" x="251.65" y="421.41" angle="0.00" type="Car" speed="20.00" pos="13.36" lane="2to3_1" slope="0.00"/>
        <vehicle id="veh2" x="245.05" y="367.95" angle="180.00" type="Car" speed="20.00" pos="24.00" lane="2to4_0" slope="0.00"/>
        <vehicle id="veh3" x="246.37" y="399.07" angle="79.43" type="Car" speed="10.00" pos="4.50" lane=":n2_10_0" slope="0.00"/>
        <vehicle id="veh4" x="231.95" y="398.35" angle="90.00" type="Car" speed="0.00" pos="231.95" lane="1to2_1" slope="0.00"/>
    </timestep>
    <timestep time="54.00">
        <vehicle id="veh1" x="251.65" y="451.41" angle="0.00" type="Car" speed="30.00" pos="43.36" lane="2to3_1" slope="0.00"/>
        <vehicle id="veh2" x="245.05" y="337.95" angle="180.00" type="Car" speed="30.00" pos="54.00" lane="2to4_0" slope="0.00"/>
        <vehicle id="veh3" x="251.65" y="416.91" angle="0.00" type="Car" speed="20.00" pos="8.86" lane="2to3_1" slope="0.00"/>
        <vehicle id="veh4" x="241.95" y="398.35" angle="90.00" type="Car" speed="10.00" pos="241.95" lane="1to2_1" slope="0.00"/>
    </timestep>
    <timestep time="55.00">
        <vehicle id="veh1" x="251.65" y="491.41" angle="0.00" type="Car" speed="40.00" pos="83.36" lane="2to3_1" slope="0.00"/>
        <vehicle id="veh2" x="245.05" y="297.95" angle="180.00" type="Car" speed="40.00" pos="94.00" lane="2to4_0" slope="0.00"/>
        <vehicle id="veh3" x="251.65" y="446.91" angle="0.00" type="Car" speed="30.00" pos="38.86" lane="2to3_1" slope="0.00"/>
        <vehicle id="veh4" x="248.35" y="382.27" angle="180.00" type="Car" speed="20.00" pos="9.68" lane="2to4_1" slope="0.00"/>
    </timestep>
    <timestep time="56.00">
        <vehicle id="veh1" x="251.65" y="541.41" angle="0.00" type="Car" speed="50.00" pos="133.36" lane="2to3_1" slope="0.00"/>
        <vehicle id="veh2" x="245.05" y="247.95" angle="180.00" type="Car" speed="50.00" pos="144.00" lane="2to4_0" slope="0.00"/>
        <vehicle id="veh3" x="251.65" y="486.91" angle="0.00" type="Car" speed="40.00" pos="78.86" lane="2to3_1" slope="0.00"/>
        <vehicle id="veh4" x="248.35" y="352.27" angle="180.00" type="Car" speed="30.00" pos="39.68" lane="2to4_1" slope="0.00"/>
    </timestep>
    <timestep time="57.00">
        <vehicle id="veh1" x="251.65" y="591.41" angle="0.00" type="Car" speed="50.00" pos="183.36" lane="2to3_1" slope="0.00"/>
        <vehicle id="veh2" x="247.58" y="198.51" angle="148.97" type="Car" speed="50.00" pos="8.60" lane=":n4_0_0" slope="0.00"/>
        <vehicle id="veh3" x="251.65" y="536.91" angle="0.00" type="Car" speed="50.00" pos="128.86" lane="2to3_1" slope="0.00"/>
        <vehicle id="veh4" x="248.35" y="312.27" angle="180.00" type="Car" speed="40.00" pos="79.68" lane="2to4_1" slope="0.00"/>
    </timestep>
    <timestep time="58.00">
        <vehicle id="veh1" x="296.61" y="598.35" angle="90.00" type="Car" speed="50.00" pos="40.06" lane="3to5_1" slope="0.00"/>
        <vehicle id="veh2" x="306.60" y="195.05" angle="90.00" type="Car" speed="60.00" pos="50.05" lane="4to6_0" slope="0.00"/>
        <vehicle id="veh3" x="251.65" y="586.91" angle="0.00" type="Car" speed="50.00" pos="178.86" lane="2to3_1" slope="0.00"/>
        <vehicle id="veh4" x="248.35" y="262.27" angle="180.00" type="Car" speed="50.00" pos="129.68" lane="2to4_1" slope="0.00"/>
    </timestep>
    <timestep time="59.00">
        <vehicle id="veh1" x="356.61" y="598.35" angle="90.00" type="Car" speed="60.00" pos="100.06" lane="3to5_1" slope="0.00"/>
        <vehicle id="veh2" x="376.60" y="195.05" angle="90.00" type="Car" speed="70.00" pos="120.05" lane="4to6_0" slope="0.00"/>
        <vehicle id="veh3" x="292.11" y="598.35" angle="90.00" type="Car" speed="50.00" pos="35.56" lane="3to5_1" slope="0.00"/>
        <vehicle id="veh4" x="248.35" y="212.27" angle="180.00" type="Car" speed="50.00" pos="179.68" lane="2to4_1" slope="0.00"/>
    </timestep>
    <timestep time="60.00">
        <vehicle id="veh1" x="426.61" y="598.35" angle="90.00" type="Car" speed="70.00" pos="170.06" lane="3to5_1" slope="0.00"/>
        <vehicle id="veh2" x="456.60" y="195.05" angle="90.00" type="Car" speed="80.00" pos="200.05" lane="4to6_0" slope="0.00"/>
        <vehicle id="veh3" x="352.11" y="598.35" angle="90.00" type="Car" speed="60.00" pos="95.56" lane="3to5_1" slope="0.00"/>
        <vehicle id="veh4" x="287.61" y="198.35" angle="90.00" type="Car" speed="50.00" pos="31.06" lane="4to6_1" slope="0.00"/>
    </timestep>
    <timestep time="61.00">
        <vehicle id="veh1" x="501.51" y="607.08" angle="8.19" type="Car" speed="80.00" pos="14.66" lane=":n5_10_0" slope="0.00"/>
        <vehicle id="veh2" x="495.05" y="142.30" angle="180.00" type="Car" speed="90.00" pos="49.65" lane="6to8_0" slope="0.00"/>
        <vehicle id="veh3" x="407.36" y="598.35" angle="90.00" type="Car" speed="55.26" pos="150.81" lane="3to5_1" slope="0.00"/>
        <vehicle id="veh4" x="347.61" y="198.35" angle="90.00" type="Car" speed="60.00" pos="91.06" lane="4to6_1" slope="0.00"/>
    </timestep>
    <timestep time="62.00">
        <vehicle id="veh1" x="501.65" y="697.07" angle="0.00" type="Car" speed="90.00" pos="89.02" lane="5to7_1" slope="0.00"/>
        <vehicle id="veh2" x="495.05" y="42.30" angle="180.00" type="Car" speed="100.00" pos="149.65" lane="6to8_0" slope="0.00"/>
        <vehicle id="veh3" x="457.62" y="598.35" angle="90.00" type="Car" speed="50.26" pos="201.07" lane="3to5_1" slope="0.00"/>
        <vehicle id="veh4" x="403.76" y="198.35" angle="90.00" type="Car" speed="56.16" pos="147.21" lane="4to6_1" slope="0.00"/>
    </timestep>
    <timestep time="63.00">
        <vehicle id="veh1" x="502.70" y="796.84" angle="24.68" type="Car" speed="100.00" pos="3.62" lane=":n7_4_0" slope="0.00"/>
        <vehicle id="veh2" x="552.25" y="-4.95" angle="90.00" type="Car" speed="100.00" pos="45.70" lane="8to10_0" slope="0.00"/>
        <vehicle id="veh3" x="498.35" y="591.35" angle="174.32" type="Car" speed="45.26" pos="0.60" lane="5to11_1" slope="0.00"/>
        <vehicle id="veh4" x="454.92" y="198.35" angle="90.00" type="Car" speed="51.16" pos="198.37" lane="4to6_1" slope="0.00"/>
    </timestep>
    <timestep time="64.00">
        <vehicle id="veh1" x="602.27" y="798.35" angle="90.00" type="Car" speed="100.00" pos="95.72" lane="7to9_1" slope="0.00"/>
        <vehicle id="veh2" x="652.25" y="-4.95" angle="90.00" type="Car" speed="100.00" pos="145.70" lane="8to10_0" slope="0.00"/>
        <vehicle id="veh3" x="498.35" y="551.09" angle="180.00" type="Car" speed="40.26" pos="40.86" lane="5to11_1" slope="0.00"/>
        <vehicle id="veh4" x="499.90" y="201.89" angle="40.54" type="Car" speed="46.16" pos="9.13" lane=":n6_10_0" slope="0.00"/>
    </timestep>
    <timestep time="65.00">
        <vehicle id="veh1" x="702.27" y="798.35" angle="90.00" type="Car" speed="100.00" pos="195.72" lane="7to9_1" slope="0.00"/>
        <vehicle id="veh3" x="498.35" y="515.84" angle="180.00" type="Car" speed="35.26" pos="76.11" lane="5to11_1" slope="0.00"/>
        <vehicle id="veh4" x="504.95" y="242.69" angle="0.00" type="Car" speed="41.16" pos="34.64" lane="6to11_0" slope="0.00"/>
    </timestep>
    <timestep time="66.00">
        <vehicle id="veh3" x="498.35" y="485.58" angle="180.00" type="Car" speed="30.26" pos="106.37" lane="5to11_1" slope="0.00"/>
        <vehicle id="veh4" x="504.95" y="293.85" angle="0.00" type="Car" speed="51.16" pos="85.80" lane="6to11_0" slope="0.00"/>
    </timestep>
    <timestep time="67.00">
        <vehicle id="veh3" x="498.35" y="460.33" angle="180.00" type="Car" speed="25.26" pos="131.62" lane="5to11_1" slope="0.00"/>
        <vehicle id="veh4" x="504.95" y="355.01" angle="0.00" type="Car" speed="61.16" pos="146.96" lane="6to11_0" slope="0.00"/>
    </timestep>
    <timestep time="68.00">
        <vehicle id="veh3" x="498.35" y="440.07" angle="180.00" type="Car" speed="20.26" pos="151.88" lane="5to11_1" slope="0.00"/>
        <vehicle id="veh4" x="537.26" y="395.05" angle="90.00" type="Car" speed="71.16" pos="29.21" lane="11to12_0" slope="0.00"/>
    </timestep>
    <timestep time="69.00">
        <vehicle id="veh3" x="498.35" y="424.82" angle="180.00" type="Car" speed="15.26" pos="167.13" lane="5to11_1" slope="0.00"/>
        <vehicle id="veh4" x="618.42" y="395.05" angle="90.00" type="Car" speed="81.16" pos="110.37" lane="11to12_0" slope="0.00"/>
    </timestep>
    <timestep time="70.00">
        <vehicle id="veh3" x="498.35" y="414.56" angle="180.00" type="Car" speed="10.26" pos="177.39" lane="5to11_1" slope="0.00"/>
        <vehicle id="veh4" x="709.58" y="395.05" angle="90.00" type="Car" speed="91.16" pos="201.53" lane="11to12_0" slope="0.00"/>
    </timestep>
    <timestep time="71.00">
        <vehicle id="veh3" x="498.35" y="409.31" angle="180.00" type="Car" speed="5.26" pos="182.64" lane="5to11_1" slope="0.00"/>
    </timestep>
    <timestep time="72.00">
        <vehicle id="veh3" x="498.35" y="409.05" angle="180.00" type="Car" speed="0.26" pos="182.90" lane="5to11_1" slope="0.00"/>
    </timestep>
    <timestep time="73.00">
        <vehicle id="veh3" x="498.35" y="409.05" angle="180.00" type="Car" speed="0.00" pos="182.90" lane="5to11_1" slope="0.00"/>
    </timestep>
    <timestep time="74.00">
        <vehicle id="veh3" x="498.35" y="409.05" angle="180.00" type="Car" speed="0.00" pos="182.90" lane="5to11_1" slope="0.00"/>
    </timestep>
    <timestep time="75.00">
        <vehicle id="veh3" x="498.35" y="409.05" angle="180.00" type="Car" speed="0.00" pos="182.90" lane="5to11_1" slope="0.00"/>
    </timestep>
    <timestep time="76.00">
        <vehicle id="veh3" x="498.35" y="409.05" angle="180.00" type="Car" speed="0.00" pos="182.90" lane="5to11_1" slope="0.00"/>
    </timestep>
    <timestep time="77.00">
        <vehicle id="veh3" x="498.35" y="409.05" angle="180.00" type="Car" speed="0.00" pos="182.90" lane="5to11_1" slope="0.00"/>
    </timestep>
    <timestep time="78.00">
        <vehicle id="veh3" x="498.35" y="409.05" angle="180.00" type="Car" speed="0.00" pos="182.90" lane="5to11_1" slope="0.00"/>
    </timestep>
    <timestep time="79.00">
        <vehicle id="veh3" x="498.35" y="409.05" angle="180.00" type="Car" speed="0.00" pos="182.90" lane="5to11_1" slope="0.00"/>
    </timestep>
    <timestep time="80.00">
        <vehicle id="veh3" x="498.35" y="409.05" angle="180.00" type="Car" speed="0.00" pos="182.90" lane="5to11_1" slope="0.00"/>
    </timestep>
    <timestep time="81.00">
        <vehicle id="veh3" x="498.35" y="409.05" angle="180.00" type="Car" speed="0.00" pos="182.90" lane="5to11_1" slope="0.00"/>
    </timestep>
    <timestep time="82.00">
        <vehicle id="veh3" x="498.35" y="409.05" angle="180.00" type="Car" speed="0.00" pos="182.90" lane="5to11_1" slope="0.00"/>
    </timestep>
    <timestep time="83.00">
        <vehicle id="veh3" x="498.35" y="409.05" angle="180.00" type="Car" speed="0.00" pos="182.90" lane="5to11_1" slope="0.00"/>
    </timestep>
    <timestep time="84.00">
        <vehicle id="veh3" x="498.35" y="409.05" angle="180.00" type="Car" speed="0.00" pos="182.90" lane="5to11_1" slope="0.00"/>
    </timestep>
    <timestep time="85.00">
        <vehicle id="veh3" x="498.35" y="409.05" angle="180.00" type="Car" speed="0.00" pos="182.90" lane="5to11_1" slope="0.00"/>
    </timestep>
    <timestep time="86.00">
        <vehicle id="veh3" x="498.35" y="409.05" angle="180.00" type="Car" speed="0.00" pos="182.90" lane="5to11_1" slope="0.00"/>
    </timestep>
    <timestep time="87.00">
        <vehicle id="veh3" x="498.35" y="409.05" angle="180.00" type="Car" speed="0.00" pos="182.90" lane="5to11_1" slope="0.00"/>
    </timestep>
    <timestep time="88.00">
        <vehicle id="veh3" x="498.35" y="409.05" angle="180.00" type="Car" speed="0.00" pos="182.90" lane="5to11_1" slope="0.00"/>
    </timestep>
    <timestep time="89.00">
        <vehicle id="veh3" x="498.35" y="409.05" angle="180.00" type="Car" speed="0.00" pos="182.90" lane="5to11_1" slope="0.00"/>
    </timestep>
    <timestep time="90.00">
        <vehicle id="veh3" x="499.41" y="403.06" angle="161.97" type="Car" speed="6.15" pos="5.15" lane=":n11_2_0" slope="0.00"/>
    </timestep>
    <timestep time="91.00">
        <vehicle id="veh3" x="513.72" y="398.35" angle="90.00" type="Car" speed="16.15" pos="5.67" lane="11to12_1" slope="0.00"/>
    </timestep>
    <timestep time="92.00">
        <vehicle id="veh3" x="539.87" y="398.35" angle="90.00" type="Car" speed="26.15" pos="31.82" lane="11to12_1" slope="0.00"/>
    </timestep>
    <timestep time="93.00">